162
Lattice="9.31025903 0.0 0.0 0.0 9.31025903 0.0 0.0 0.0 9.31025903" Properties=species:S:1:pos:R:3:BEC:R:9:forces:R:3 energy=-728.12455767 stress="-0.148564201293331 0.01946654294857128 -0.0021939778388757277 0.01946654294857128 -0.15220664615505045 -0.025084849871253343 -0.0021939778388757277 -0.025084849871253343 -0.1327448405119057" free_energy=-728.12455767 pbc="T T T"
H        5.77229000       1.90374000       1.11472000       0.48624000       0.30439000      -0.05827000       0.32047000       1.45481000      -0.25112000      -0.07887000      -0.31608000       0.66243000      -1.06656600      -1.68507800       1.95560700
H        3.48561000       8.12342000       6.56264000       0.61488000       0.02395000      -0.00819000       0.04191000       0.53706000      -0.02893000      -0.07370000      -0.05051000       0.44254000      -1.77221000      -1.04731000       2.36051100
H        7.14841000       0.24305000       1.72791000       0.85288000       0.24679000      -0.13247000       0.08550000       0.98058000      -0.18847000      -0.14692000      -0.21752000       0.33876000       0.67485400      -0.20566000      -0.20129100
H        5.07560000       2.14258000       5.78910000       0.72567000       0.17603000       0.09214000       0.23601000       0.82637000       0.06121000       0.06811000       0.04672000       0.40968000      -1.26783100      -0.53556100      -0.21718800
H        0.76069000       2.16880000       6.46584000       0.51350000       0.21611000      -0.16316000       0.26300000       0.77521000      -0.22799000      -0.15882000      -0.24322000       0.53337000      -2.40945000      -0.13426500       0.43946000
H        8.02409000       3.00695000       1.59119000       0.64753000       0.12598000       0.06217000       0.10533000       0.66205000      -0.03014000       0.03762000      -0.01888000       0.53515000      -1.77535300      -0.14069500      -0.59433300
H        7.74952000       3.85131000       4.90925000       0.29051000       0.08641000      -0.12284000      -0.01378000       0.47942000      -0.01937000      -0.10137000      -0.01021000       0.42620000      -2.57236400       0.57786600       0.47335400
H        8.79936000       0.56171000       6.39967000       0.62929000       0.69492000       0.25946000       0.37292000       1.89782000       0.50383000       0.23582000       0.73541000       0.55962000       1.25052200      -1.50302500      -0.96810200
H        1.37844000       5.25112000       2.23979000       0.54531000      -0.00104000      -0.13528000       0.08707000       0.59821000      -0.21823000      -0.13544000      -0.14933000       0.49224000      -3.73713200      -2.04566800       2.66917500
H        0.46156000       3.10670000       0.10778000       0.45145000       0.01545000      -0.18832000      -0.12889000       0.44982000       0.07639000      -0.16197000      -0.02441000       0.72852000       2.45643900       0.67081600      -2.34490200
H        2.27609000       1.68751000       7.26972000       0.66309000       0.01132000      -0.08199000       0.02090000       0.55795000       0.06237000      -0.06688000       0.05824000       0.51145000       1.42705100      -2.65621100       1.44165000
H        2.32807000       6.33375000       5.82740000       0.75377000      -0.23993000       0.20056000      -0.13653000       0.51471000      -0.21780000       0.17118000      -0.25519000       0.91508000       1.86710400      -1.50156700       1.67767100
H        3.44459000       9.12184000       8.58570000       0.66463000      -0.13231000       0.17228000      -0.09460000       0.53697000      -0.23571000       0.11070000      -0.19210000       0.67941000       1.30689800      -1.90036300       0.56667200
H        0.78224000       6.39562000       4.63577000       1.21988000       0.27391000      -0.61576000       0.26302000       0.36434000      -0.21667000      -0.70637000      -0.21638000       1.10896000      -1.29398500       0.61819400       1.10746400
H        3.87334000       1.38270000       5.09023000       0.69395000      -0.08831000       0.05280000      -0.08095000       0.38912000      -0.07231000      -0.01189000      -0.04928000       0.53911000      -1.54826600       1.01203600      -2.85037400
H        5.82599000       7.69057000       8.59100000       0.83408000      -0.10500000       0.01955000      -0.20402000       0.62069000      -0.18535000      -0.07391000      -0.17136000       0.50160000      -5.21322600       0.28869400      -0.86461700
H        5.08694000       4.33463000       8.01722000       1.15231000       0.65247000       0.46323000       0.61346000       0.75410000       0.22036000       0.46349000       0.23559000       0.51918000       0.24565800       1.67787200       1.13002000
H        6.28223000       8.65746000       3.30501000       0.30656000      -0.04143000       0.03389000      -0.06557000       1.18742000       0.75604000      -0.02129000       0.89126000       1.21027000       0.53734400      -2.00296300      -2.34160000
H        4.77270000       0.24848000       8.53554000       0.45994000       0.36688000      -0.04161000       0.27990000       1.02267000      -0.04049000      -0.06091000      -0.06672000       0.41380000       0.29706600      -1.09851400       0.43719400
H        3.04478000       3.26205000       7.58733000       0.55312000      -0.13853000      -0.07710000      -0.05683000       0.36064000      -0.07800000      -0.08801000      -0.04546000       0.39117000       0.74594200       1.04608500       0.39010100
H        1.97060000       3.55721000       2.47662000       0.56254000       0.02831000      -0.09155000       0.04106000       0.54951000      -0.09220000      -0.13369000      -0.08639000       0.38190000       0.30901800       0.25938400       1.94263100
H        6.72757000       3.59690000       8.27675000       0.87223000      -0.07330000      -0.18872000      -0.12819000       0.65993000      -0.01727000      -0.32819000      -0.08680000       0.49572000       4.00033900       1.95518500      -1.37789800
H        4.44892000       6.84114000       1.13782000       0.36737000       0.01057000       0.21499000      -0.03291000       0.39459000      -0.02326000       0.22690000      -0.00035000       0.56178000       3.66370700      -1.12871600       0.51319900
H        1.48733000       8.82887000       0.37305000       0.67819000      -0.17623000       0.21015000      -0.21753000       0.68916000      -0.23821000       0.37046000      -0.39348000       0.53754000      -0.55748300       0.38215500      -0.63388400
H        4.41902000       6.24202000       5.89032000       1.23633000       0.12084000       0.14621000       0.11456000       0.62284000      -0.18274000       0.25409000      -0.17715000       0.98624000      -0.90380700      -0.06343400      -0.36120900
H        5.44789000       3.73954000       0.31301000       0.51257000       0.00804000       0.04860000      -0.03683000       0.72046000      -0.36062000       0.04019000      -0.40056000       0.92446000       1.04261400       0.20268400       2.17052500
H        0.83788000       3.57009000       7.92389000       0.31223000       0.01988000      -0.08241000       0.04346000       0.56510000      -0.01566000      -0.05046000       0.01282000       0.54066000      -1.07997300       1.23061100      -1.48914300
H        8.46333000       5.92756000       0.16584000       0.74770000       0.26773000      -0.17939000       0.21452000       0.74565000       0.00162000      -0.19798000      -0.03923000       0.46026000      -0.50900100       0.03192800       1.50702400
H        2.66257000       5.07469000       1.57493000       0.90134000      -0.66809000      -0.37427000      -0.72371000       1.06615000       0.42262000      -0.25801000       0.24665000       0.50093000      -0.08458300       0.51453600      -0.44815100
H        6.91309000       5.50451000       0.61413000       0.69739000      -0.03514000       0.04825000       0.00509000       0.50944000       0.18948000      -0.02171000       0.21158000       0.50623000       0.24864500       0.55108000      -0.22307700
H        2.22073000       0.72967000       4.32531000       0.35439000       0.01895000       0.01906000       0.02736000       0.90477000       0.01846000       0.03503000       0.04620000       0.59586000       1.76144600       2.76225900      -2.82108100
H        6.36860000       1.56199000       2.99174000       0.60580000       0.10369000       0.15620000       0.14154000       1.24605000       0.12905000       0.17533000       0.09454000       0.90367000       0.94055800       3.61457000       2.09713200
H        5.97523000       1.39657000       7.88266000       0.77550000      -0.04162000      -0.07819000      -0.07798000       0.38158000      -0.01320000      -0.18092000       0.01741000       0.75165000      -0.65121900      -0.07169400      -1.43006600
H        1.27778000       0.42326000       2.30489000       0.64515000       0.45980000      -0.09553000       0.54924000       1.08231000      -0.03431000      -0.07459000      -0.05405000       0.43400000      -0.45100800       2.90919100       2.07578300
H        0.94733000       8.10263000       2.59435000       0.04535000       0.20425000       0.16769000       0.18159000       0.35538000      -0.13824000       0.23054000      -0.11827000       0.45102000       1.15146400      -1.02722700       0.07901900
H        7.74946000       7.38471000       8.22493000       1.47328000      -0.56233000      -0.44443000      -0.75313000       0.81043000       0.42842000      -0.50072000       0.38053000       0.84646000      -0.05634100      -1.08197700      -1.23472700
H        4.40848000       9.08236000       6.03132000       0.73664000       0.20248000       0.07351000       0.17070000       1.01134000      -0.04171000      -0.01773000      -0.05670000       0.28427000       1.41020700       1.49422700       0.27808300
H        8.53020000       0.92392000       2.45464000       0.72872000      -0.16337000       0.39571000      -0.18213000       0.62286000       0.08628000       0.47648000       0.13243000       1.11137000      -1.71640000      -0.26126100      -2.00153600
H        2.85754000       7.11846000       9.09959000       0.64677000      -0.30190000      -0.22176000      -0.18074000       0.87247000       0.28562000      -0.20749000       0.36230000       0.46443000      -2.32870100       2.96298800       0.05769100
H        5.67147000       5.77245000       2.05100000       0.27658000      -0.20649000       0.33395000      -0.17944000       0.89295000      -0.88496000       0.23170000      -0.80898000       1.59101000      -1.07725500       1.32714100      -0.25916500
H        8.96085000       6.82537000       6.94444000       0.73163000       0.01136000      -0.44674000       0.00809000       0.49113000      -0.02678000      -0.32134000      -0.04793000       1.20738000       1.52115300      -0.06943200      -4.17094700
H        5.19953000       4.56219000       4.87526000       0.94892000      -0.03826000       0.27104000      -0.00801000       0.47898000      -0.48333000       0.31179000      -0.52990000       1.32197000       0.90451700      -2.16876700       1.32321800
H        6.56558000       5.40926000       8.38686000       0.70326000      -0.14056000       0.04292000      -0.06812000       0.50636000       0.04860000       0.14487000       0.10036000       0.39179000      -1.48114000      -1.47461400       0.16770500
H        7.42686000       0.29676000       4.08564000       1.38626000       0.36515000       0.21591000       0.40190000       0.62014000       0.04209000       0.00362000      -0.04610000       0.48766000      -0.47520100       0.22741800      -1.39240800
H        1.89400000       7.89697000       1.50878000       0.45096000      -0.04574000      -0.01123000      -0.07942000       0.64632000      -0.00002000       0.01321000       0.01450000       0.47779000       1.82576200       0.40525600      -2.76947700
H        6.83744000       2.98785000       6.33892000       0.71404000      -0.42264000       0.16760000      -0.27003000       1.31757000      -0.00665000       0.23038000      -0.00416000       0.61417000      -1.26508700      -4.48796000      -1.04907400
H        1.60992000       4.22845000       5.02388000       0.49760000      -0.02159000      -0.01667000      -0.03876000       0.42914000       0.09171000       0.02646000       0.15721000       0.86208000      -0.04152500      -0.68853600       1.52692700
H        7.03146000       8.90018000       6.21615000       1.21892000       0.04496000      -0.13926000      -0.07506000       0.46287000      -0.00559000       0.06668000       0.02942000       0.32707000       0.77132600      -1.66748200       0.85583900
H        1.58094000       1.65586000       5.34923000       0.46163000      -0.02250000      -0.06553000       0.02942000       0.66395000       0.01606000       0.09954000       0.20489000       0.29625000       0.67603200       0.95055200       0.18416100
H        3.57833000       6.05813000       0.17852000       0.59361000       0.07557000       0.01253000      -0.00710000       0.54151000      -0.07709000       0.09547000      -0.14949000       0.33768000       0.38741700      -0.50127400      -2.95716300
H        2.64743000       6.38444000       3.53194000       0.86648000      -0.15422000       0.14083000      -0.12920000       0.47613000       0.18382000       0.11799000       0.25759000       0.65661000      -0.15239000      -0.02675200      -0.57968700
H        8.29066000       4.22580000       7.20333000       0.54326000       0.01096000      -0.16693000       0.04527000       0.49284000      -0.08684000       0.02141000       0.07793000       0.31552000      -2.10060500      -1.75259900       2.28546500
H        2.53889000       9.06280000       5.26522000       0.80255000      -0.29365000       0.25693000      -0.29477000       0.50141000      -0.18531000       0.13606000      -0.14524000       0.51582000      -0.18047600      -1.54823500       0.14043700
H        0.27320000       7.99586000       1.27532000       0.38547000       0.01259000       0.09230000      -0.00986000       0.25812000       0.20125000       0.08202000       0.26333000       1.17546000      -2.73398400      -0.18102400      -1.38608800
H        4.63436000       4.12734000       6.28432000       0.99708000       0.12237000      -0.62912000       0.19135000       0.42027000      -0.16102000      -0.72158000      -0.19141000       1.10467000       1.45413100      -2.25549000      -0.38939600
H        4.35520000       1.76072000       2.37699000       0.69553000      -0.36421000      -0.30068000      -0.27789000       0.83529000       0.52838000      -0.31398000       0.47927000       0.88244000      -0.23254900       0.32914500       0.55667000
H        5.19225000       6.47674000       7.44921000       0.57125000      -0.05458000       0.07320000      -0.04130000       0.75654000      -0.26246000      -0.06069000      -0.04036000       1.06701000      -1.23260300      -0.26254200      -0.33964500
H        2.87810000       3.56175000       0.44246000       0.63263000       0.09257000       0.17718000       0.14144000       0.59625000       0.10603000       0.22489000       0.13354000       0.66187000      -0.23903300      -0.68665400      -0.06290900
H        5.25328000       6.65213000       4.24892000       0.85297000      -0.17929000      -0.05390000      -0.13086000       0.57361000       0.16014000      -0.06028000       0.20529000       0.52526000       0.30719100       0.40701200      -0.57341400
H        4.63136000       2.41807000       8.00190000       0.77791000      -0.64921000       0.39259000      -0.61497000       1.16342000      -0.41369000       0.40623000      -0.49633000       0.57589000       0.49524500      -0.16860900      -0.39783200
H        0.53277000       0.86277000       4.03007000       1.22014000      -0.40771000      -0.01519000      -0.27706000       0.61205000       0.01746000       0.07009000      -0.06281000       0.71716000      -2.63388600      -0.32730900       0.41825100
H        3.90463000       3.66424000       1.75798000       0.56021000      -0.15500000       0.22178000      -0.15032000       0.56614000      -0.36075000       0.15197000      -0.31726000       0.83313000      -1.09509600      -0.41319600      -1.09855700
H        7.77432000       7.31468000       5.44674000       0.70252000       0.10999000       0.21779000       0.13551000       0.74109000       0.29324000       0.22163000       0.21799000       0.55266000      -1.27766200      -0.46452600      -1.61104800
H        1.64372000       0.59130000       8.54038000       0.69947000      -0.02445000      -0.19792000       0.16121000       0.32155000      -0.12456000      -0.22439000       0.02271000       0.66742000       1.45671500      -0.39979400      -0.32431900
H        8.21310000       1.08806000       0.47752000       0.55354000      -0.09314000       0.14230000      -0.14402000       0.41083000      -0.30233000       0.11786000      -0.29017000       2.24074000      -1.92203200      -0.21984700       0.69369900
H        4.78536000       0.73870000       0.83403000       0.81219000       0.05432000       0.25608000       0.11859000       0.54524000       0.18237000       0.19962000       0.19491000       0.86738000       0.22950500      -0.24836100       1.54705200
H        8.82204000       3.69055000       4.05370000       0.49869000      -0.01019000      -0.15504000       0.00872000       0.52800000      -0.11292000      -0.09719000       0.00176000       0.47428000       1.06426600       0.91008600      -1.76625200
H        6.91799000       8.57848000       9.27160000       0.55940000       0.13271000       0.08250000       0.07168000       0.77144000       0.01002000       0.08152000      -0.04106000       0.59339000      -0.47433600      -2.30852400      -1.75468700
H        2.76772000       2.98473000       5.31595000       0.73844000       0.14509000      -0.14451000       0.13320000       0.96803000       0.13077000      -0.16155000       0.01034000       0.46241000      -2.53124200      -2.23984000      -1.48028700
H        8.23365000       1.37373000       7.85368000       1.27906000       0.17972000      -0.67547000       0.02975000       0.33999000      -0.16315000      -0.63669000      -0.22056000       1.18595000      -1.93365000      -0.03716300       1.84735000
H        4.57064000       9.04053000       3.04715000       0.43740000       0.05634000      -0.04060000       0.15098000       0.60498000      -0.12042000      -0.03758000      -0.08795000       0.41791000      -2.10892200       0.25448600      -0.65661900
H        4.16261000       5.31856000       3.95709000       0.81830000       0.13160000      -0.20971000       0.26119000       1.64316000      -0.14576000      -0.30086000      -0.20668000       0.39405000      -1.91262200      -1.61508600       0.79706900
H        0.59472000       3.54055000       2.52603000       1.27200000       0.24659000       0.60382000       0.10404000       0.45524000       0.06085000       0.59871000       0.13889000       0.64447000       1.15753500      -0.56629300       1.34300300
H        1.29005000       2.11966000       3.06205000       0.29855000      -0.04846000       0.09844000      -0.23910000       1.28530000       0.26366000       0.06134000       0.16919000       0.53666000      -0.11507800      -0.35427200      -0.50792500
H        6.12453000       0.03004000       4.80258000       0.52095000      -0.08720000      -0.20322000      -0.01612000       0.53131000      -0.32593000      -0.20548000      -0.20776000       1.36684000      -0.64321100       0.03227100      -1.66171400
H        0.93935000       7.24662000       6.73115000       0.45892000       0.09650000       0.13393000       0.10431000       0.63958000       0.20285000       0.21600000       0.22024000       0.70952000      -0.76269100      -1.61440900      -2.50539000
H        7.60770000       5.48737000       2.59774000       1.09325000       0.19151000       0.00693000       0.20767000       0.33419000       0.09242000      -0.10827000       0.05154000       0.98244000       4.30079400       2.22751500       1.31725400
H        8.20548000       5.76269000       7.93665000       0.50703000       0.27333000       0.00458000       0.28299000       1.01497000      -0.17584000       0.05364000      -0.11261000       0.49965000       0.47604300      -1.70126800      -0.21777100
H        3.43043000       9.06244000       2.04187000       0.53467000       0.05737000       0.30693000       0.08858000       0.45027000      -0.04493000       0.15762000       0.02464000       0.66793000      -0.13185500      -0.06568800      -0.82620900
H        3.82555000       3.84184000       3.68055000       0.36650000      -0.02657000       0.02124000      -0.04883000       0.83309000       0.34459000      -0.04345000       0.44266000       0.50858000      -0.14576600      -2.05671500      -1.64582600
H        9.13878000       8.60062000       9.07037000       0.48581000       0.27185000      -0.17686000       0.24262000       0.79518000      -0.23424000      -0.18614000      -0.24933000       0.37886000       0.33529600      -2.56261000       2.59334400
H        3.06249000       1.40862000       9.14794000       0.43639000      -0.05248000       0.00011000      -0.00408000       0.42275000      -0.02910000       0.00679000       0.05185000       0.46467000      -0.62214300      -0.39887800      -3.26269700
H        8.90508000       8.59057000       5.20387000       0.42938000       0.00641000      -0.13267000       0.04873000       0.45457000       0.01610000      -0.04784000      -0.01517000       0.49816000       0.67215300       0.21691500       0.28753200
H        2.36305000       1.15268000       1.31185000       0.75640000       0.00174000      -0.62266000       0.03030000       0.38828000      -0.00441000      -0.58506000       0.00431000       1.22753000       0.17071100       1.24531500      -0.71484800
H        7.24549000       2.32445000       4.28541000       0.58283000       0.00565000       0.01208000      -0.01857000       0.35771000       0.01791000       0.00146000      -0.01238000       0.61289000      -0.75172900      -0.30454100      -0.37805600
H        5.71347000       5.35654000       6.54865000       0.37459000      -0.14936000      -0.02599000      -0.29653000       1.35058000       0.19972000      -0.06120000       0.26259000       0.64259000       0.13101700      -0.84435900      -1.41311600
H        6.37227000       1.13066000       5.83975000       0.58464000       0.03014000      -0.05973000       0.20901000       0.62530000       0.15785000      -0.05236000      -0.05050000       0.34717000      -1.25129300       0.62259700      -0.64511000
H        2.32889000       4.54121000       6.52707000       1.08525000       0.72608000       0.25117000       0.78714000       1.33345000       0.25923000       0.21495000       0.23549000       0.41307000      -1.99821900       0.11829700      -1.57718300
H        4.03587000       7.68723000       3.92459000       0.44781000      -0.27028000       0.07134000      -0.40393000       1.02591000      -0.33394000       0.14200000      -0.35163000       0.71512000      -0.28762600      -1.26260400       0.00272600
H        6.27406000       4.43979000       3.55820000       0.31253000       0.11313000      -0.07150000       0.02777000       0.62052000       0.02863000      -0.00533000      -0.04175000       0.31539000      -0.73927300       1.35711300      -0.85124700
H        8.99014000       2.23461000       4.27459000       0.39273000      -0.08675000      -0.04161000      -0.14535000       1.02521000       0.21160000      -0.01510000       0.25806000       0.47674000      -0.59731100      -2.46201100       0.52930100
H        1.21960000       6.42554000       8.22837000       0.47575000       0.03467000      -0.05208000       0.01162000       0.54692000      -0.23061000      -0.04649000      -0.29083000       0.49212000       0.33336000       1.63143600      -0.77310700
H        6.99064000       1.97257000       8.67143000       0.88108000      -0.20196000       0.05924000      -0.13775000       0.43223000      -0.00272000       0.03922000      -0.01666000       0.36655000      -0.17370800       0.79184300       0.86821900
H        8.82473000       4.18727000       2.28322000       0.39856000      -0.14369000       0.04722000      -0.03345000       1.00215000       0.17022000       0.10912000       0.14545000       0.49748000      -1.76505000       4.03756800      -0.04704100
H        0.58856000       5.40572000       5.61700000       0.61784000      -0.36624000       0.20101000      -0.41649000       1.15707000      -0.23241000       0.15910000      -0.15432000       0.35744000      -0.94688000      -0.49989000       1.33285600
H        2.97002000       0.74741000       6.44871000       0.70059000       0.12292000      -0.19048000       0.07681000       0.51771000       0.03321000      -0.14288000      -0.00943000       0.71362000       0.67665500      -0.69571300       0.90787800
H        6.21513000       7.55499000       1.37507000       0.83782000       0.63908000       0.32682000       0.78822000       1.15361000       0.57771000       0.39482000       0.47071000       0.87894000      -0.26141400      -0.50384600       1.52671000
H        8.98767000       6.69414000       2.98795000       0.40912000       0.48020000      -0.04298000       0.23386000       1.05194000      -0.08359000      -0.00251000      -0.00794000       0.35313000      -0.50359500       1.81680400      -0.68801700
H        3.50169000       5.91105000       7.15527000       0.55960000       0.02371000       0.11388000      -0.01139000       0.38264000       0.27686000       0.06957000       0.32962000       1.23035000      -2.41853600       0.70834400       0.66398900
H        0.49940000       1.21571000       7.89662000       0.52073000      -0.25784000       0.60262000      -0.29426000       0.60485000      -0.71641000       0.55184000      -0.55581000       1.72964000      -0.50911300      -0.31998200       0.79837100
H        0.92451000       8.45469000       7.43925000       0.39137000      -0.01333000       0.11351000      -0.01730000       0.51500000       0.02366000       0.07793000       0.05689000       0.57140000      -2.14201400       3.18398900       0.83785900
H        7.56851000       6.08296000       4.55056000       0.64515000      -0.11130000      -0.05176000      -0.12278000       0.46666000       0.14700000      -0.12497000       0.17569000       0.60157000      -0.06842600       1.18885100      -0.38056300
H        1.66329000       7.72934000       3.77329000       0.57872000      -0.15740000       0.21962000      -0.19756000       1.18998000       0.09520000       0.29845000      -0.00325000       0.49409000       0.84047700      -0.36969700       0.78319500
H        5.91977000       3.72257000       1.90968000       0.35738000       0.05930000       0.03787000       0.03878000       0.54937000       0.14558000      -0.00510000       0.10334000       0.65658000      -0.59774500       0.97466300       1.20609700
H        5.76429000       7.80392000       6.21793000       0.65691000       0.24541000       0.05838000       0.22428000       1.03184000       0.05744000      -0.04321000      -0.15129000       0.37436000       0.62307800      -1.10095600      -1.02003900
H        5.04605000       2.77663000       3.32438000       0.92680000      -0.00173000       0.20936000      -0.10069000       0.35826000      -0.00474000       0.20243000       0.03366000       0.40986000      -0.98136900      -0.87275200       0.35165500
H        6.78157000       7.26205000       2.78413000       0.44000000      -0.02007000       0.10409000      -0.06575000       0.49629000      -0.12426000       0.05283000      -0.07769000       0.63540000       1.07971500      -2.62261000       1.70045300
H        1.22402000       5.85514000       0.28784000       0.48584000      -0.02987000       0.30386000      -0.07497000       0.33130000      -0.03723000       0.22948000      -0.03090000       0.98807000      -0.07140600      -1.17580000      -1.78757200
O        5.29941000       1.75478000       8.47745000      -1.72285000      -0.03847000      -0.08642000       0.17701000      -1.79484000       0.25949000      -0.10187000       0.26485000      -1.18589000      -1.07064800       0.71986000       0.30190500
O        6.40280000       0.21738000       3.75726000      -1.07259000      -0.13318000      -0.12951000      -0.40652000      -1.48799000      -0.01392000      -0.03680000      -0.42736000      -1.60811000       1.30003100       1.11262200       7.47517600
O        8.67498000       3.77671000       4.97881000      -0.68992000      -0.02239000       0.26688000       0.09225000      -1.18326000      -0.11302000       0.24840000      -0.15716000      -0.88292000       0.12088200      -0.81088200       1.08643800
O        8.84573000       1.20369000       4.16840000      -1.74915000       0.06050000      -0.06777000       0.13868000      -1.36225000      -0.14614000      -0.03051000      -0.18594000      -1.25414000       1.91626900       1.62302400      -0.81944400
O        3.98894000       3.53824000       7.46714000      -1.83176000      -0.08907000      -0.03833000      -0.16497000      -1.53017000       0.27266000      -0.19319000       0.39212000      -1.48811000      -0.61763000      -0.28625400       0.00111700
O        5.59843000       3.95808000       5.71986000      -1.62142000       0.45133000      -0.02485000       0.09686000      -1.70743000       0.17810000       0.15363000       0.30238000      -1.90700000      -1.07793900       2.41425400       0.01226800