162
Lattice="7.38955749 0.0 0.0 0.0 7.38955749 0.0 0.0 0.0 7.38955749" Properties=species:S:1:pos:R:3:BEC:R:9:forces:R:3 energy=-570.81255604 stress="-1.6537713855024192 -0.03476734666879993 0.021839308816357934 -0.03476734666879993 -1.6646807382997857 0.004059695988293877 0.021839308816357934 0.004059695988293877 -1.6375114178672707" free_energy=-570.81255604 pbc="T T T"
H        0.65426000       0.59948000       0.58652000       1.11321000       0.61428000       0.60203000       0.65344000       1.06944000       0.53287000       0.64679000       0.53348000       0.93547000      -2.42214100      -1.01478600      -0.50531800
H        2.93400000       0.83023000       0.52533000       0.98452000       0.65828000       0.55839000       0.59737000       1.21851000       0.58943000       0.55032000       0.67269000       0.91724000       1.41277200      -1.05195000       0.12787400
H        5.59020000       0.65882000       0.60603000       1.07423000       0.65587000       0.58648000       0.64891000       1.07588000       0.62181000       0.61750000       0.64972000       1.00507000      -0.51540300      -0.22237300      -0.71857700
H        0.61162000       2.92554000       0.61556000       0.89911000       0.61266000       0.60156000       0.55177000       1.11156000       0.64970000       0.55528000       0.65474000       1.08428000       0.89993000       2.06007400       0.30895300
H        3.14006000       3.00649000       0.44501000       1.03239000       0.53804000       0.65684000       0.57536000       1.01211000       0.67188000       0.60187000       0.59264000       1.03773000      -0.15162000       1.77915000       1.96163600
H        5.48554000       3.16177000       0.79406000       0.99317000       0.50934000       0.60061000       0.51652000       0.96227000       0.55316000       0.58059000       0.54565000       1.06974000       0.52797300       0.45575600      -1.64758300
H        0.41702000       5.71359000       0.48407000       1.03882000       0.59945000       0.51484000       0.56567000       1.07597000       0.49658000       0.60448000       0.56883000       0.90412000       2.69236400       1.03782600       2.48813500
H        3.09042000       5.42126000       0.51553000       1.01106000       0.56552000       0.53279000       0.55451000       1.12955000       0.62410000       0.51155000       0.63553000       1.06274000      -0.59564500       1.56861000       1.07862200
H        5.52528000       5.49265000       0.55610000       1.02126000       0.64268000       0.64885000       0.61734000       0.99281000       0.63648000       0.62309000       0.63761000       1.11100000      -1.01458300      -0.79620700      -0.52207000
H        0.56390000       0.66972000       2.92798000       1.11971000       0.58546000       0.62381000       0.62327000       1.03458000       0.57080000       0.65111000       0.55828000       0.96403000       0.30888500      -0.49730900       0.19250500
H        3.08736000       0.52491000       3.19983000       1.17609000       0.64159000       0.59372000       0.61068000       1.00808000       0.55775000       0.61904000       0.57959000       1.00279000       0.13088500       1.46056600      -1.05293400
H        5.43966000       0.68618000       3.07653000       1.05348000       0.62487000       0.67192000       0.60834000       0.95891000       0.64394000       0.64602000       0.63590000       1.12544000       0.35455800      -0.25810700      -0.31025500
H        0.56370000       2.93221000       3.06372000       0.92818000       0.58637000       0.50660000       0.54448000       1.13570000       0.60291000       0.47914000       0.62993000       0.97754000       1.08206000       2.55569900       0.65014300
H        3.18708000       3.16023000       3.11805000       1.06973000       0.63837000       0.46840000       0.64213000       1.08080000       0.46979000       0.54312000       0.53589000       0.78691000      -2.59992800      -1.51540000      -2.35005000
H        5.69151000       3.03047000       2.92964000       1.02383000       0.55234000       0.58682000       0.60593000       1.06413000       0.60240000       0.60306000       0.59521000       1.09658000      -1.08950500       1.10240200       1.31015900
H        0.56227000       5.59011000       3.13439000       0.88341000       0.61937000       0.56943000       0.53391000       1.17803000       0.64868000       0.51849000       0.66255000       1.05468000      -0.33674200      -1.39144400      -1.83043300
H        3.07019000       5.55417000       2.99773000       1.10669000       0.62383000       0.65345000       0.68321000       0.95421000       0.59240000       0.63984000       0.51904000       0.97608000       0.56421600      -0.00168100      -0.84081300
H        5.44762000       5.59417000       3.08081000       1.11109000       0.58043000       0.62736000       0.61622000       0.92772000       0.61508000       0.67121000       0.62005000       1.11358000      -0.50794600      -0.86399600      -0.66203400
H        0.58263000       0.48644000       5.52328000       1.13694000       0.71336000       0.63433000       0.67149000       1.10790000       0.56603000       0.69233000       0.64889000       0.92591000      -0.55663700       0.34408500       0.38702900
H        3.00711000       0.96454000       5.54645000       1.00697000       0.41185000       0.40124000       0.43440000       1.04862000       0.45126000       0.44895000       0.47716000       0.85060000      -0.47167800      -1.87588700      -1.07242800
H        5.67811000       0.49548000       5.49377000       1.00000000       0.56306000       0.47868000       0.54786000       1.21984000       0.65361000       0.46832000       0.65687000       0.99706000      -1.13506200       1.13312000       0.55838300
H        0.55865000       2.95750000       5.59717000       1.03658000       0.60815000       0.53141000       0.58478000       1.15679000       0.58508000       0.53511000       0.61172000       1.08293000      -0.70776000       0.03947000      -2.56366900
H        3.13701000       3.04736000       5.32119000       1.11126000       0.62685000       0.59405000       0.65151000       0.98941000       0.59336000       0.63843000       0.59874000       1.03649000      -0.85700500       0.09619300       1.06834300
H        5.51313000       3.16485000       5.44294000       1.07642000       0.56750000       0.55618000       0.58117000       0.94324000       0.50737000       0.56827000       0.51194000       0.98401000       1.67497600       1.33575800       0.97926900
H        0.63642000       5.70460000       5.36114000       0.89314000       0.53947000       0.53688000       0.50910000       1.05117000       0.55827000       0.56392000       0.57756000       1.04889000       1.97812100       1.63945800       2.47498400
H        3.25278000       5.38113000       5.55915000       1.18621000       0.46399000       0.62586000       0.47968000       0.98867000       0.53102000       0.65847000       0.52560000       1.13449000      -0.21057700       2.52673300       0.24960400
H        5.64288000       5.48639000       5.51536000       1.06206000       0.59146000       0.60012000       0.60150000       0.95370000       0.54789000       0.63749000       0.56537000       1.01947000      -1.62218600      -1.33095200      -0.23836600
H        1.71298000       1.81500000       0.27145000       1.20515000       0.58050000      -0.55034000       0.55601000       0.98922000      -0.56410000      -0.53926000      -0.54779000       1.07119000       1.71618900       1.12025200       1.97634100
H        4.26723000       2.11519000       0.58303000       1.15044000       0.55498000      -0.55628000       0.62920000       1.04450000      -0.50764000      -0.60721000      -0.48536000       0.93092000       0.46077500      -1.21133300      -0.57649500
H        6.85176000       1.87557000       0.67019000       1.23520000       0.51713000      -0.70347000       0.58164000       0.82249000      -0.49797000      -0.70576000      -0.47920000       1.07304000      -0.74677100      -0.80680300      -0.84360500
H        1.94889000       4.12096000       0.46616000       1.04682000       0.57675000      -0.65606000       0.56903000       1.05732000      -0.63347000      -0.61864000      -0.59770000       1.05874000      -1.82268500      -0.05317200       1.45515500
H        4.25484000       4.36262000       0.75411000       0.98217000       0.63412000      -0.62695000       0.57747000       0.98695000      -0.58889000      -0.57864000      -0.59004000       1.07895000       1.27801600       0.43532000      -1.47591400
H        6.74594000       4.44862000       0.60606000       0.97367000       0.60243000      -0.54521000       0.62504000       1.13732000      -0.63078000      -0.59995000      -0.65668000       1.03412000       0.14575800      -0.74738000       0.05796200
H        1.85841000       6.94355000       0.55128000       1.02961000       0.64824000      -0.62096000       0.67504000       1.04943000      -0.63309000      -0.70458000      -0.66923000       1.01101000      -2.06241300      -2.36834500       2.60064500
H        4.22798000       6.90529000       0.60841000       1.02226000       0.61462000      -0.63111000       0.63123000       1.02732000      -0.66765000      -0.61547000      -0.61769000       1.03719000      -0.38929700      -0.56904700       0.48297600
H        6.70737000       6.91200000       0.54058000       0.90238000       0.58546000      -0.54350000       0.53147000       1.00819000      -0.57287000      -0.49383000      -0.58049000       0.96370000      -0.93413800      -1.03683200       1.11357100
H        1.78586000       1.80113000       3.19941000       1.00392000       0.69955000      -0.54337000       0.66885000       1.12000000      -0.55186000      -0.59525000      -0.62476000       0.92065000       1.45228300       1.56439600      -1.81098400
H        4.31936000       1.90364000       3.12107000       1.04260000       0.62731000      -0.64536000       0.62427000       1.04725000      -0.65554000      -0.61303000      -0.64088000       1.03971000       0.07926200       0.32141000      -0.88411700
H        6.67691000       1.81025000       3.07811000       1.10599000       0.54681000      -0.60867000       0.58001000       0.88791000      -0.53430000      -0.64484000      -0.55073000       1.02753000       0.22236200       0.36514700      -0.43752500
H        1.67385000       4.45636000       3.11545000       1.07648000       0.59707000      -0.57503000       0.58805000       1.00086000      -0.62138000      -0.60193000      -0.63002000       0.99516000       0.81865700      -0.44099300      -1.02007200
H        4.42605000       4.33742000       3.07702000       1.07745000       0.62963000      -0.63081000       0.66193000       1.03393000      -0.60658000      -0.67532000      -0.64792000       1.01499000       0.49331700       0.57948200      -1.00251900
H        6.87588000       4.36781000       3.07794000       1.08765000       0.54400000      -0.61034000       0.58643000       0.93243000      -0.65117000      -0.59420000      -0.56832000       1.07958000      -0.21552000      -0.08215800      -0.65165900
H        1.87765000       6.79303000       3.03061000       1.14890000       0.62291000      -0.59640000       0.65182000       1.04754000      -0.53699000      -0.64057000      -0.55457000       0.92202000      -0.56188900       0.59907200      -0.59572700
H        4.23593000       6.95147000       3.15700000       0.93070000       0.61042000      -0.58685000       0.56487000       1.16692000      -0.58055000      -0.56475000      -0.61815000       1.05052000       0.81288300      -1.06452000      -1.30284500
H        6.64288000       6.76145000       2.97893000       0.93223000       0.61596000      -0.58274000       0.56018000       1.08207000      -0.64786000      -0.53994000      -0.66030000       1.08024000       0.17594800       0.44440900       0.52387100
H        1.82411000       1.80640000       5.39896000       0.97813000       0.62583000      -0.60813000       0.60898000       1.08790000      -0.64965000      -0.60432000      -0.65070000       0.97102000      -1.13557200      -0.66163400       0.79046400
H        4.42264000       2.02474000       5.57060000       1.02706000       0.64248000      -0.57815000       0.59751000       1.20680000      -0.57279000      -0.58410000      -0.59148000       0.97936000      -0.39892000      -0.20556900      -0.85782600
H        6.66639000       1.96388000       5.45170000       1.10090000       0.51136000      -0.69880000       0.55891000       0.85400000      -0.59105000      -0.65130000      -0.51940000       1.15146000       0.48999900      -0.48761100       0.13382400
H        1.78349000       4.42765000       5.42527000       1.01401000       0.66317000      -0.54941000       0.62778000       1.14670000      -0.63181000      -0.52610000      -0.64309000       0.99355000       0.45968100       0.23470200      -0.64960100
H        4.42437000       4.33411000       5.54299000       0.97179000       0.65664000      -0.56626000       0.62602000       1.11339000      -0.56413000      -0.57670000      -0.61530000       0.99665000      -1.07939800      -0.27895000       0.67993600
H        6.88739000       4.58727000       5.71824000       0.99736000       0.59384000      -0.61058000       0.60679000       1.19364000      -0.59423000      -0.61558000      -0.57064000       1.04392000      -0.19098200      -0.90090400      -0.82992700
H        1.85097000       6.76127000       5.51545000       1.09766000       0.52260000      -0.64103000       0.57723000       0.82456000      -0.54812000      -0.72012000      -0.53894000       1.13188000       0.80811300      -0.03611200       0.82554700
H        4.39220000       6.74981000       5.50236000       1.06191000       0.60477000      -0.65946000       0.64193000       0.99147000      -0.62192000      -0.64334000      -0.58140000       1.04602000      -1.23018900      -0.61586400       1.09195000
H        6.64431000       6.63288000       5.37372000       1.06654000       0.64553000      -0.61176000       0.61864000       1.07163000      -0.57172000      -0.64622000      -0.64242000       1.02712000       0.49262400       0.74062900       1.90901600
H        1.90671000       0.73664000       1.76240000       0.98348000      -0.50031000       0.63702000      -0.55506000       0.97855000      -0.63952000       0.65916000      -0.61450000       1.23121000      -0.47554300      -0.04378900       0.42741900
H        4.31511000       0.75874000       1.76955000       1.05910000      -0.56264000       0.61957000      -0.60391000       1.02964000      -0.60981000       0.61782000      -0.57241000       1.05640000      -0.59016500      -0.59662200      -0.12918800
H        6.66614000       0.79148000       1.93579000       1.00230000      -0.64171000       0.58379000      -0.60228000       1.23813000      -0.61000000       0.55876000      -0.59574000       0.98251000      -0.39761900      -0.49980100      -1.84492800
H        1.92587000       2.99334000       1.87071000       0.89272000      -0.49853000       0.58462000      -0.50463000       0.91797000      -0.59614000       0.54152000      -0.55346000       1.07844000      -1.10371100       1.31564500      -0.31990400
H        4.28815000       3.10436000       1.87000000       1.06744000      -0.66103000       0.67690000      -0.59784000       0.95777000      -0.59762000       0.64416000      -0.60932000       1.07760000      -1.00911900       1.14750000      -0.16561300
H        6.76343000       2.97311000       1.84528000       1.01945000      -0.62569000       0.60354000      -0.62356000       1.10140000      -0.61257000       0.59338000      -0.59344000       1.01850000       0.43275500       1.54395000      -0.63812100
H        1.60907000       5.77615000       1.92660000       1.01628000      -0.54579000       0.55505000      -0.55351000       1.02824000      -0.65527000       0.45859000      -0.58364000       1.11720000       1.55335800      -1.31347000      -1.97187700
H        4.35857000       5.56451000       1.65431000       1.04117000      -0.65374000       0.56824000      -0.60746000       1.10169000      -0.59160000       0.56798000      -0.60972000       0.99612000      -1.02184000       0.62923200       0.82999300
H        6.75588000       5.71850000       1.89732000       1.14145000      -0.59400000       0.59167000      -0.62160000       0.97482000      -0.49583000       0.65926000      -0.54811000       0.95592000       0.65985000      -2.03499800      -0.61996200
H        1.77007000       0.33719000       4.40553000       1.02159000      -0.42241000       0.47317000      -0.45432000       0.98070000      -0.40890000       0.50800000      -0.40168000       0.95492000       0.15686800       1.96038100      -1.06978200
H        4.34580000       0.70651000       4.34184000       1.03744000      -0.66032000       0.58980000      -0.60190000       1.09182000      -0.57794000       0.53740000      -0.57982000       1.02800000       0.01729600      -0.38584300       0.06664500
H        6.87185000       0.63788000       4.16414000       1.01526000      -0.59392000       0.51989000      -0.60675000       1.10332000      -0.62608000       0.54820000      -0.61293000       1.05973000      -1.18823700      -0.63059800       1.24087800
H        1.70722000       3.10979000       4.20001000       0.98584000      -0.69820000       0.54453000      -0.66050000       1.14621000      -0.57602000       0.53934000      -0.61991000       0.98894000       0.34437300       0.41541300      -0.15732600
H        4.11712000       3.18352000       4.26799000       1.04345000      -0.56612000       0.60162000      -0.54821000       0.98353000      -0.57687000       0.54978000      -0.56044000       1.05430000       0.90873300       0.76965900      -0.72080500
H        6.77981000       3.05263000       4.15878000       1.07886000      -0.65989000       0.53592000      -0.64183000       1.09962000      -0.58621000       0.61153000      -0.66423000       0.95163000      -0.11240000       0.74766900       0.96851100
H        1.93699000       5.73616000       4.27106000       1.06831000      -0.58065000       0.60928000      -0.53124000       0.99196000      -0.52144000       0.60642000      -0.56734000       1.09012000      -1.39123100       0.55510000      -0.39124600
H        4.31835000       5.62749000       4.21390000       0.91669000      -0.56718000       0.61931000      -0.58553000       1.01491000      -0.66059000       0.59880000      -0.62450000       1.12349000       0.40955100      -0.78952900       1.01051400
H        6.86220000       5.67253000       4.24227000       1.12333000      -0.51591000       0.64172000      -0.59435000       0.87630000      -0.53300000       0.68534000      -0.52655000       1.09923000       0.31358800      -1.93637900       0.26201900
H        1.95970000       0.73702000       6.84880000       0.95659000      -0.45828000       0.60546000      -0.45898000       0.95939000      -0.51043000       0.58719000      -0.49087000       1.11164000      -1.39309000      -0.73088300      -2.46416700
H        4.24323000       0.62726000       6.70309000       0.93811000      -0.58717000       0.63964000      -0.59194000       1.01522000      -0.71110000       0.54662000      -0.60421000       1.17730000       0.78113300      -0.66170500       0.42741100
H        6.69458000       0.81241000       6.57542000       0.92069000      -0.54355000       0.50697000      -0.52398000       1.06193000      -0.52073000       0.56340000      -0.55536000       0.96235000       2.68260300      -2.70594700       2.84397000
H        1.79348000       3.15952000       6.47859000       1.02859000      -0.53669000       0.50849000      -0.53167000       0.97458000      -0.45959000       0.52935000      -0.47348000       0.91560000       3.39733800      -2.47057500       2.50999200
H        4.28990000       3.32281000       6.84166000       1.09220000      -0.47278000       0.66383000      -0.47807000       1.05639000      -0.50769000       0.66495000      -0.52320000       1.14201000       1.09467300      -1.00831500      -0.42104400
H        6.85522000       2.94213000       6.80728000       0.97900000      -0.63773000       0.49970000      -0.57723000       1.21000000      -0.56974000       0.50714000      -0.60555000       0.91841000      -0.28555000       1.25208800      -0.60302000
H        1.75452000       5.50445000       6.78004000       0.98608000      -0.69688000       0.48854000      -0.63814000       1.23671000      -0.60745000       0.50648000      -0.67225000       0.95256000      -0.29412900       1.16370700      -0.49745100
H        4.08998000       5.57311000       6.79481000       0.92769000      -0.60769000       0.52798000      -0.55702000       1.10853000      -0.56591000       0.50641000      -0.60149000       0.93277000       2.44672500      -1.01816800       1.21721400
H        6.82408000       5.70543000       6.86256000       1.06397000      -0.49089000       0.66898000      -0.55721000       0.97927000      -0.56133000       0.67155000      -0.52951000       1.11892000      -0.86927200      -0.62643400      -1.40740900
H        0.75111000       1.95350000       1.79463000       1.06676000      -0.53832000      -0.67590000      -0.49284000       0.97451000       0.61089000      -0.64738000       0.62343000       1.22686000      -0.65163600      -0.61898800      -0.05006000
H        3.01730000       1.88202000       1.67619000       0.92494000      -0.43637000      -0.65593000      -0.41608000       0.84600000       0.56350000      -0.59016000       0.52493000       1.17164000      -1.07164600       1.20491700       2.58022900
H        5.39603000       2.00017000       1.71746000       1.03901000      -0.60278000      -0.61994000      -0.59075000       0.97106000       0.58666000      -0.59956000       0.56233000       1.08524000       1.00208100      -1.64662500      -0.61665600
H        0.62385000       4.29415000       1.66166000       0.98836000      -0.69546000      -0.60945000      -0.67371000       1.09159000       0.68488000      -0.60426000       0.69723000       1.03139000       0.24943700       0.41574100       0.41990500
H        2.81020000       4.31199000       1.72525000       1.08672000      -0.58632000      -0.53489000      -0.56934000       1.13108000       0.60101000      -0.53324000       0.63983000       0.99228000       1.02248600       0.63263900       1.22453800
H        5.69377000       4.36606000       2.06307000       1.06665000      -0.55478000      -0.49640000      -0.60075000       1.05233000       0.54727000      -0.50039000       0.51611000       1.00450000      -0.84954600       0.30268300      -1.33133100
H        0.58222000       6.79391000       1.94453000       1.14942000      -0.52878000      -0.59477000      -0.59801000       0.92446000       0.52957000      -0.60634000       0.49141000       1.04199000       0.23076000       0.11648100      -2.60782800
H        3.04981000       6.90706000       1.95854000       0.99887000      -0.58543000      -0.60511000      -0.62014000       1.07116000       0.65939000      -0.62715000       0.64314000       1.05196000       1.03094400      -1.43570900      -1.65354000
H        5.46314000       6.72246000       1.83097000       0.98549000      -0.63640000      -0.55593000      -0.60965000       1.17166000       0.62454000      -0.55896000       0.64411000       0.94882000      -0.08427900       0.43322200      -0.61834100
H        0.47914000       1.73798000       4.13080000       0.97739000      -0.60161000      -0.59248000      -0.64304000       1.06653000       0.64863000      -0.59517000       0.64436000       1.09394000       1.13559800      -0.17368100       0.94938900
H        2.91626000       1.73967000       4.16605000       1.22501000      -0.58769000      -0.57762000      -0.68080000       0.97480000       0.55261000      -0.62235000       0.52017000       1.01057000       0.57605000       1.02734100       0.50725600
H        5.50735000       1.89473000       4.47727000       0.98445000      -0.65547000      -0.55670000      -0.59746000       1.13331000       0.58393000      -0.53884000       0.59373000       0.96525000       0.76839100      -0.59054200      -1.78703300
H        0.52936000       4.25736000       4.45083000       0.85110000      -0.60646000      -0.54209000      -0.55209000       1.16106000       0.67577000      -0.50668000       0.68113000       1.12010000       0.54859700      -0.15421300      -1.56536800
H        2.89158000       4.56369000       4.15416000       1.03737000      -0.52870000      -0.53176000      -0.53540000       0.97788000       0.53222000      -0.49545000       0.48495000       1.09214000       1.22192700      -1.62286000      -0.05905100
H        5.51720000       4.32844000       4.42072000       1.02611000      -0.60888000      -0.61795000      -0.61977000       1.04489000       0.59901000      -0.64697000       0.62334000       1.08281000       0.02042000       0.27594500      -0.92449300
H        0.61700000       6.82832000       4.23502000       1.02038000      -0.54233000      -0.71773000      -0.55958000       0.88574000       0.58193000      -0.64950000       0.52542000       1.14675000      -1.45783800       1.20027100       1.07261900
H        3.08256000       6.92169000       4.24252000       0.97321000      -0.57399000      -0.59073000      -0.55046000       0.96216000       0.56266000      -0.55864000       0.52755000       0.99211000       1.89112400      -2.32158000      -0.83153100
H        5.65535000       6.73043000       4.40606000       1.07305000      -0.57534000      -0.59967000      -0.58433000       1.04759000       0.64078000      -0.57196000       0.61457000       1.08195000      -1.13871200       0.19441300      -1.44310600
H        0.78083000       1.82771000       6.66540000       0.91225000      -0.58755000      -0.63545000      -0.55019000       0.98934000       0.67898000      -0.57483000       0.65126000       1.15918000      -0.84129900      -0.89609600      -1.07368100
H        3.29081000       2.00244000       6.76092000       1.12565000      -0.55893000      -0.57805000      -0.51252000       0.97784000       0.51819000      -0.57335000       0.56231000       1.07887000      -0.90113400      -0.68840900      -1.18338000
H        5.39288000       1.87496000       6.77530000       1.02617000      -0.66107000      -0.62497000      -0.63954000       1.07463000       0.64207000      -0.66930000       0.69905000       1.02078000       0.66554000      -0.42347100       0.05511800
H        0.69868000       4.20613000       6.69798000       0.99146000      -0.51776000      -0.49786000      -0.50290000       0.98114000       0.58699000      -0.46286000       0.54021000       1.03447000      -1.69680800       2.10447200       2.05442500
H        3.02895000       4.27981000       6.64343000       1.06297000      -0.57203000      -0.62517000      -0.62949000       0.99252000       0.58563000      -0.67203000       0.57197000       1.01758000       0.63023000      -0.27999300      -0.66263200
H        5.69514000       4.25981000       6.75986000       1.25910000      -0.54269000      -0.66195000      -0.61044000       0.83406000       0.50417000      -0.69493000       0.46056000       0.95667000      -1.38664600       0.54504600       0.73983800
H        0.61709000       6.87878000       6.80049000       1.16961000      -0.58535000      -0.62285000      -0.63479000       0.89653000       0.52526000      -0.66730000       0.55253000       1.05366000      -0.87665300       0.22406200      -0.22730000
H        2.87953000       6.80376000       6.76121000       1.04836000      -0.58959000      -0.53530000      -0.62230000       1.05216000       0.64808000      -0.54288000       0.59962000       1.03216000       2.21039300      -1.18772700      -1.46901500
H        5.33277000       6.66165000       6.78306000       1.02243000      -0.56217000      -0.54975000      -0.51539000       1.12604000       0.60332000      -0.54507000       0.64248000       1.07586000       0.92690500       0.95791300      -0.02491200
O        2.44740000       0.11146000       2.50635000      -2.02236000      -0.04360000      -0.15043000      -0.02218000      -1.96841000      -0.01728000      -0.03782000       0.12269000      -2.15014000      -0.04642300      -0.18612000      -2.38729600
O        4.87879000       0.10170000       2.39865000      -1.96671000       0.13146000      -0.06913000      -0.00922000      -2.12042000       0.03162000      -0.04918000      -0.10220000      -2.15542000      -0.20261400       0.00633400      -0.36801600
O        7.25629000       0.01009000       2.37379000      -2.22712000       0.11140000       0.05177000       0.07238000      -2.35144000       0.03048000       0.05621000       0.05579000      -1.77353000       0.86818200       0.80292400       0.27128500
O        2.37970000       2.46615000       2.56388000      -2.02120000      -0.11875000       0.02191000      -0.18947000      -2.00167000       0.16925000      -0.02732000       0.15548000      -2.25221000       3.69141900       0.09903000      -2.11634200
O        4.90117000       2.49922000       2.42665000      -2.15593000       0.10339000       0.16596000      -0.10107000      -1.93365000       0.01527000      -0.15681000       0.06548000      -2.17263000       0.74591200       0.25092000       2.20435600
O        0.02075000       2.39026000       2.45815000      -2.23836000      -0.01069000       0.01406000       0.05188000      -1.85075000      -0.05312000       0.12408000       0.00160000      -2.15782000      -1.40068700       0.02798600      -1.60653600